LAMMPS data file via write_data, version 22 Jul 2025, timestep = 200000, units = real

648 atoms
2 atom types
432 bonds
1 bond types
216 angles
1 angle types

0 18.552 xlo xhi
0 18.552 ylo yhi
0 18.552 zlo zhi

Masses

1 15.9994
2 1.008

Pair Coeffs # lj/cut/coul/long

1 0.155425 3.16549
2 0 1

Bond Coeffs # harmonic

1 529.581 1.012

Angle Coeffs # harmonic

1 37.95 113.24

Atoms # full

136 46 1 -0.82 2.7565739550984643 1.0227065638390345 4.292612216084211 0 0 0
138 46 2 0.41 2.1940783848445653 1.864556722761818 4.176731059960293 0 0 0
137 46 2 0.41 2.1656176908914215 0.17238216575228493 4.431030491816116 0 0 0
648 216 2 0.41 4.00914807392476 1.9530934900641541 3.6102546729187037 0 1 1
647 216 2 0.41 5.574602551957998 1.6243106559267033 3.339093065092569 0 1 1
646 216 1 -0.82 4.900339491881447 2.332820196028451 3.1589480243387267 0 1 1
473 158 2 0.41 4.877916208988393 3.103808416964614 1.2672950686026132 0 0 1
472 158 1 -0.82 5.041226894300233 3.7344407221132547 0.45162234675100604 0 0 1
202 68 1 -0.82 1.266570043665952 3.0170191123317975 2.5985069291346896 0 1 0
222 74 2 0.41 4.443803813699757 5.386033599870449 0.7217398821157238 0 0 0
203 68 2 0.41 1.630340570181401 2.308779622157838 1.9696492540680732 0 1 0
351 117 2 0.41 3.872942424100439 0.34521354844360513 5.514709671062579 0 0 0
470 157 2 0.41 0.9518236578210938 4.775387630531784 5.799881010531888 0 0 0
644 215 2 0.41 5.820100440423892 3.9808449718875236 3.1364335710690963 0 0 1
645 215 2 0.41 5.860470947403895 5.673890756542792 3.295723423472313 0 0 1
362 121 2 0.41 2.3366661845603987 5.589541752268655 4.119194789763626 0 0 0
221 74 2 0.41 3.3946455972466514 5.927405513860149 1.8659033614352158 0 0 0
361 121 1 -0.82 2.6111319251886833 5.4272622791064355 3.16362504309392 0 0 0
469 157 1 -0.82 1.9165441462306325 4.409653896083411 5.850507984105317 0 0 0
204 68 2 0.41 0.44677664055141414 3.3377831643693403 2.1268889413440046 0 1 0
363 121 2 0.41 2.194031148612087 4.529030075846276 2.8941150012971693 0 0 0
156 52 2 0.41 3.3359326534678386 5.408568163973036 6.178725278760175 0 0 -1
260 87 2 0.41 1.380474104008428 0.32822891843592983 0.45894338113604843 0 0 0
259 87 1 -0.82 1.6286632231457638 1.2822321882508367 0.08723581280267781 0 0 0
643 215 1 -0.82 6.384669275301272 4.775130731995355 3.3367205399153854 0 0 1
278 93 2 0.41 6.519775890683346 4.187861012378685 4.799037832072108 0 0 0
555 185 2 0.41 7.922333508091304 5.023389629030303 3.0228992654873292 0 0 1
553 185 1 -0.82 8.91189805743725 5.304050473962004 2.836524586397735 0 0 1
207 69 2 0.41 8.795983721529884 3.61022969219955 2.5896853748086968 0 1 0
554 185 2 0.41 8.85817858336606 6.046839982272656 2.1512498322348566 0 0 1
224 75 2 0.41 11.689487306149593 2.1475155443501905 5.949543646194535 0 0 0
205 69 1 -0.82 8.989457494277659 2.6727900264844235 2.223531593194572 0 1 0
206 69 2 0.41 8.916429130405003 1.9913483213139536 2.938509752792836 0 1 0
388 130 1 -0.82 11.87387827376227 6.0288094106810535 6.013750284202372 0 0 0
543 181 2 0.41 10.732205322442201 4.626563131060419 3.156043796550524 -1 0 1
235 79 1 -0.82 6.373449400567733 0.12874238549192002 3.140534420950579 -1 0 0
236 79 2 0.41 7.350835883312977 0.04008527001748163 2.743568825158217 -1 0 0
277 93 1 -0.82 6.521399320040801 3.926784509919292 5.798413140507434 0 0 0
576 192 2 0.41 9.42073312109272 2.3274110811243824 0.6645839665997524 0 0 1
132 44 2 0.41 11.326368361416893 4.721362982379362 0.9251377430338728 0 0 0
130 44 1 -0.82 11.400504399751341 5.262604396605129 0.01889473404732911 0 0 0
542 181 2 0.41 12.273548796689496 4.286804835806982 3.656662894849238 -1 0 1
541 181 1 -0.82 11.683537539416545 4.660788590312252 2.9036886298767426 -1 0 1
69 23 2 0.41 11.970016470557207 0.6185987667520911 1.7394893089669548 0 1 0
131 44 2 0.41 12.113390134838108 5.968549229564175 0.14626377140124092 0 0 0
157 53 1 -0.82 17.72558417395779 5.250769940016209 4.114006346306819 0 0 0
159 53 2 0.41 18.362342258332 5.560108223417617 3.345380426446792 0 0 0
225 75 2 0.41 12.91913044646165 2.003493899881749 4.862266998441562 0 0 0
223 75 1 -0.82 12.53360285580494 2.5661021327622335 5.527666287737719 0 0 0
242 81 2 0.41 13.719069366913002 0.5171675583865148 3.1631462133927544 0 0 0
241 81 1 -0.82 13.998144931469078 0.6008024331260344 4.163113561557925 0 0 0
443 148 2 0.41 14.808755839558271 4.109119608054898 2.6474871583327033 0 0 0
444 148 2 0.41 14.018196706941005 2.6905508047769318 3.0047235501423777 0 0 0
442 148 1 -0.82 14.670325493899014 3.3880332825094186 3.36529960431893 0 0 0
164 55 2 0.41 15.957835589265253 2.3596659422461865 3.488766597487527 -1 0 0
163 55 1 -0.82 16.783619236101597 1.712671504129057 3.507849976189228 -1 0 0
165 55 2 0.41 17.440563988521554 2.112625561825067 4.151190118846614 -1 0 0
243 81 2 0.41 14.969063189755 0.3498666155645098 4.327095003501861 0 0 0
468 156 2 0.41 16.925431928323164 4.91251341553678 1.4729111906953543 0 0 1
466 156 1 -0.82 17.491702031902996 4.064909976979277 1.371849710891935 0 0 1
142 48 1 -0.82 15.206656483665224 5.593168220396562 1.5491765201494647 0 0 0
560 187 2 0.41 17.471153308456692 4.250889589265257 5.448906327170231 -1 0 0
144 48 2 0.41 14.953871489885364 5.717404205386615 0.5990890154875971 0 0 0
21 7 2 0.41 17.409969083359908 0.297815061564777 3.292969467168296 -1 0 0
158 53 2 0.41 16.955073333045494 5.987166742460189 4.199466667829721 0 0 0
467 156 2 0.41 16.782028249271736 3.403300753994308 1.0185502841142404 0 0 1
370 124 1 -0.82 13.60618922797488 1.4603109332717448 1.435391455187537 0 0 0
372 124 2 0.41 14.539820782628038 1.8263935078113553 1.1751820657358105 0 0 0
430 144 1 -0.82 15.710240675882574 2.1642699109619645 0.2126191508230597 0 0 1
371 124 2 0.41 13.374198644264169 1.011111922493933 0.517587746229217 0 0 0
339 113 2 0.41 4.903726706452136 7.63824408255352 1.0436612045429563 0 0 0
220 74 1 -0.82 3.9197730649253284 6.19032265423253 0.981550305498326 0 0 0
563 188 2 0.41 4.713069743238399 6.477163383303865 4.6273337084276305 0 0 0
562 188 1 -0.82 5.251095416674133 7.083892577933325 3.9447133717048506 0 0 0
337 113 1 -0.82 5.609718700257859 8.427202056441573 1.0291930111216692 0 0 0
188 63 2 0.41 2.8168692189438307 11.028060600087615 2.4146683015225126 0 0 0
189 63 2 0.41 1.6476291700463155 10.523158560610105 1.2156975993167798 0 0 0
187 63 1 -0.82 1.9603088850602801 11.279049713198171 1.9058871439699572 0 0 0
110 37 2 0.41 5.817322798041375 10.897344211045912 3.1790994501488403 0 0 0
109 37 1 -0.82 4.825763087189328 11.247286620586195 3.327243507587741 0 0 0
111 37 2 0.41 4.303197252911632 10.396531576176157 3.6835994393959512 0 0 0
73 25 1 -0.82 3.104805889475523 9.054349928217029 4.18943867485429 0 0 0
568 190 1 -0.82 0.044342625301238905 9.217103319417767 5.802339176135502 0 0 0
74 25 2 0.41 3.4572852322433176 8.094449284148125 3.955153512013715 0 0 0
75 25 2 0.41 3.1076599247973915 9.118265670354166 5.22187983073099 0 0 0
194 65 2 0.41 0.5664815193627517 10.740342853453347 2.947395690880759 1 0 0
570 190 2 0.41 0.23576553059407956 9.452357813655139 4.82086618877783 0 0 0
564 188 2 0.41 5.894012817700102 7.704243497713836 4.515732826122751 0 0 0
146 49 2 0.41 3.216549161680999 12.210643753157873 6.075809278112009 0 0 -1
299 100 2 0.41 9.48670452531194 6.348470183198388 4.070049721272674 0 0 0
484 162 1 -0.82 9.037581116827356 7.00252601385732 0.8993731962669832 0 0 0
485 162 2 0.41 8.431836887477557 7.500477703838427 0.1534489862063428 0 0 0
300 100 2 0.41 10.518266256618686 6.8775718859419195 5.2987700055894535 0 0 0
298 100 1 -0.82 9.770777368175109 7.200764271265914 4.612599979455691 0 0 0
338 113 2 0.41 6.424922224555602 8.24474015305417 1.5782338499810298 0 0 0
450 150 2 0.41 7.397967164353742 11.173604762849306 1.5595896763525932 1 -1 1
508 170 1 -0.82 9.726339182976954 8.96095339052407 2.5350435332242807 0 0 1
510 170 2 0.41 9.284370806783906 8.37359109253146 1.8296519342942112 0 0 1
509 170 2 0.41 9.768599031115322 8.329751238663135 3.348271344130399 0 0 1
449 150 2 0.41 8.474405667127227 10.391746963264074 2.4201811366214154 1 -1 1
448 150 1 -0.82 7.584233814163039 10.932274237457051 2.5237718300100975 1 -1 1
500 167 2 0.41 8.111740437590152 7.924967316663912 4.782347302749045 0 0 1
499 167 1 -0.82 7.282095058010472 8.365876401380978 5.268689691284184 0 0 1
501 167 2 0.41 7.517588111367453 9.341811765412396 5.536791068464032 0 0 1
425 142 2 0.41 10.328822897595755 10.429676107760416 5.250076424583986 0 0 0
622 208 1 -0.82 8.497049597216138 10.666821665627744 6.024107552500933 0 0 0
623 208 2 0.41 8.099354936856725 11.482898438166936 5.563540128059476 0 0 0
424 142 1 -0.82 11.239038761872619 10.8687285897367 5.1436008426509 0 0 0
383 128 2 0.41 11.289425547572568 9.053962909621362 2.0875475961338146 0 0 1
384 128 2 0.41 12.36283494893463 10.113093347410532 1.3902792557863253 0 0 1
382 128 1 -0.82 12.236809413125014 9.167502474328572 1.726154733191389 0 0 1
63 21 2 0.41 8.173998027010265 12.19836227772463 3.5196275906728545 0 0 0
533 178 2 0.41 11.349453739363296 12.084786450889013 0.24623981850713522 0 0 1
426 142 2 0.41 12.0032138129454 10.211687833780173 5.21202903855326 0 0 0
522 174 2 0.41 11.179759594395795 12.203686659709264 3.892222347981073 0 0 0
486 162 2 0.41 9.758563193008184 6.521600721935594 0.3176699081269636 0 0 0
143 48 2 0.41 14.996685705712558 6.509561865680975 1.9527444480972347 0 0 0
386 129 2 0.41 13.955955044259506 11.82632821519372 1.9276217395520725 0 0 0
387 129 2 0.41 14.049316994256008 11.414474923439087 0.25768761208641716 0 0 0
385 129 1 -0.82 13.414035426199414 11.699887367347362 1.0223060014355225 0 0 0
177 59 2 0.41 17.6766358096076 9.557184701700892 2.351391189933098 0 0 0
176 59 2 0.41 16.237950975623352 8.739848954640959 2.020043812344578 0 0 0
175 59 1 -0.82 17.07984555545362 9.10299723209634 1.6245111345110108 0 0 0
171 57 2 0.41 16.149896518632286 10.170086301774278 0.5849209195246051 0 0 0
513 171 2 0.41 14.749810310281822 11.458282708574213 4.267700277202515 0 0 0
193 65 1 -0.82 18.277715951618994 10.58298191784875 3.4725855128070915 0 0 0
195 65 2 0.41 17.917852379700705 11.509702561541873 3.7709359075100144 0 0 0
25 9 1 -0.82 14.938886628939246 8.092761175946604 2.789479931835947 -1 0 0
26 9 2 0.41 14.141737218640516 8.552505444692319 2.405029669484621 -1 0 0
27 9 2 0.41 14.684846684057787 7.833307061664141 3.7663126870091506 -1 0 0
282 94 2 0.41 12.809801795339379 8.101686818921369 0.6087879016883427 0 0 0
390 130 2 0.41 12.68280697032554 6.434152667666136 5.494721831925064 0 0 0
251 84 2 0.41 13.686754786696797 7.94017195380248 5.6682701269371 0 -1 0
250 84 1 -0.82 14.200727565951572 7.139669731331621 5.17116432572655 0 -1 0
162 54 2 0.41 17.444289318395345 8.04878681899954 6.104573567766322 0 0 0
511 171 1 -0.82 14.282587238449793 12.092731065824086 3.6236671161250396 0 0 0
160 54 1 -0.82 16.70051258145311 7.324606857910886 6.137019942689837 0 0 0
252 84 2 0.41 15.228178607086846 7.257526128041391 5.436401497686117 0 -1 0
219 73 2 0.41 0.46133894476392556 17.605654564711966 1.7578053945510081 0 -1 0
217 73 1 -0.82 1.1897895449992268 17.471977960293586 1.0062201622924403 0 -1 0
627 209 2 0.41 5.084148031861602 12.767157816958536 3.483684629554817 0 0 1
494 165 2 0.41 1.2349559315177465 12.856798923668174 1.7854061234852798 0 0 0
625 209 1 -0.82 5.3237382655629455 13.789706055695886 3.645745325965366 0 0 1
493 165 1 -0.82 0.8005482622137251 13.782043723015526 1.7071191562287078 0 0 0
257 86 2 0.41 5.795906873729633 17.922194204366004 5.792406642020075 0 0 0
495 165 2 0.41 1.563659037083465 14.411636155822112 1.854038279337563 0 0 0
626 209 2 0.41 4.490841892440575 14.342126567572953 3.8876645163311525 0 0 1
135 45 2 0.41 2.460530836176647 15.826055519369724 3.7578867908815443 0 -1 0
18 6 2 0.41 4.782318241748577 18.006754324442195 2.2673535120716384 0 -1 0
16 6 1 -0.82 4.11577728893722 17.301408710074877 1.8482767460129252 0 -1 0
134 45 2 0.41 3.3385530791004605 16.16707434995148 2.430929015191161 0 -1 0
133 45 1 -0.82 2.7500105942763575 15.382298211796462 2.871654103442495 0 -1 0
218 73 2 0.41 2.056279551725474 17.11290461148043 1.5216024202001974 0 -1 0
380 127 2 0.41 0.5023353051437339 17.33167911232292 3.715565178702381 0 0 0
78 26 2 0.41 6.183032980396633 14.449674302125494 4.916555967254902 0 0 0
379 127 1 -0.82 1.331306914052715 17.34719217776665 4.315365481572086 0 0 0
303 101 2 0.41 1.999409488366478 13.441515505697767 4.133141873004181 1 0 0
301 101 1 -0.82 2.0851901452434243 13.334751822629928 5.1729947948333646 1 0 0
381 127 2 0.41 0.9396011138276024 17.220364871620944 5.21871522470267 0 0 0
302 101 2 0.41 1.3158966263197316 13.835528578822425 5.6664949992236 1 0 0
17 6 2 0.41 4.401472903286586 17.176921116096974 0.8552227896235642 0 -1 0
614 205 2 0.41 0.26331966865319956 13.471343869525073 0.0009129140885661968 0 0 1
67 23 1 -0.82 11.505025207011931 18.451279056410858 2.3048997510930276 0 0 0
68 23 2 0.41 12.150463078167562 17.633531635044033 2.3754450269517116 0 0 0
289 97 1 -0.82 8.00102249414914 12.489708228423346 0.1808344170302952 -1 0 0
291 97 2 0.41 7.594880348093726 13.309382200474323 0.7818948440496684 -1 0 0
258 86 2 0.41 6.93256212845372 16.597971286930147 6.014971245434522 0 0 0
237 79 2 0.41 6.518713203792209 18.336668707889434 4.072327905314662 -1 -1 0
256 86 1 -0.82 6.7419058338394455 17.572659855657577 5.646785198724946 0 0 0
416 139 2 0.41 6.46432119033763 14.122535407374803 2.597829943242791 0 0 1
417 139 2 0.41 6.692800405521841 15.381287201589556 1.5876735468972476 0 0 1
608 203 2 0.41 9.790359906472185 18.061620062657102 2.392407552276051 0 0 1
607 203 1 -0.82 8.83583863006727 17.676344918464174 2.264465286339858 0 0 1
61 21 1 -0.82 8.454467170646334 13.080550580775956 3.9771912986601214 0 0 0
599 200 2 0.41 8.865273424466308 13.606630845345379 5.458021839134773 0 0 1
62 21 2 0.41 8.72852702652269 13.743237967932465 3.198190443734613 0 0 0
633 211 2 0.41 10.32600520809539 15.838648067683106 4.619013038162858 -1 0 1
609 203 2 0.41 9.004290705619344 16.833722916634287 2.768302158427294 0 0 1
631 211 1 -0.82 10.214735944515073 15.346089326012327 3.6808478293699327 -1 0 1
632 211 2 0.41 10.631245260970262 14.422785200377094 3.85075452618623 -1 0 1
415 139 1 -0.82 7.0931605620311045 14.468798483875622 1.8592962365258647 0 0 1
520 174 1 -0.82 11.618504701452313 12.930126134021778 3.3233131466645753 0 0 0
438 146 2 0.41 7.621974181545118 16.841140037508495 0.9469338505470963 -1 -1 1
117 39 2 0.41 10.564932192632 15.029646431129416 0.05752257264678917 0 -1 0
76 26 1 -0.82 6.633932575913138 14.904333797858357 5.7060005948465085 0 0 0
566 189 2 0.41 11.296166247817665 17.087011947395336 6.053863882391918 0 -1 0
565 189 1 -0.82 10.485169065296194 16.43490964168496 6.093269808085547 0 -1 0
77 26 2 0.41 7.633731237968553 14.721455339306567 5.769038859660572 0 0 0
419 140 2 0.41 12.941276057260744 18.268075503440002 5.418194626172901 0 0 0
276 92 2 0.41 12.907735006709974 15.70598929555592 1.7314138940628157 -1 -1 0
489 163 2 0.41 12.870126817842849 13.231231950968253 0.7470031143833723 0 0 1
487 163 1 -0.82 12.566734159314032 14.21195732266504 0.5232895400292259 0 0 1
19 7 1 -0.82 17.689195312310897 17.940475984115533 2.838016376178312 -1 -1 0
20 7 2 0.41 16.976925762304187 17.602788922609765 2.16996961951347 -1 -1 0
512 171 2 0.41 14.497554190866806 13.011113496057233 3.9430310314872186 0 0 0
274 92 1 -0.82 13.393487821216937 16.474509090797252 2.283424178276731 -1 -1 0
521 174 2 0.41 12.652900425202255 12.828204627041012 3.276015388049461 0 0 0
639 213 2 0.41 15.701533238826286 15.032629928517634 3.6814153483570857 0 0 0
637 213 1 -0.82 14.664337990760773 15.061650891868943 3.993968738113762 0 0 0
275 92 2 0.41 13.964380422356047 16.057531494670854 3.0343488464035158 -1 -1 0
638 213 2 0.41 14.489670916327857 15.41161444572188 4.911766079922653 0 0 0
401 134 2 0.41 14.882837945389326 16.77691453257791 1.6315933134207061 -1 -1 0
121 41 1 -0.82 17.26902133010755 15.035961854398456 2.7264673410238363 0 -1 0
122 41 2 0.41 16.585196379798845 15.489538422130915 2.0854757810001474 0 -1 0
123 41 2 0.41 18.019966652332815 14.544780171387737 2.219137936050554 0 -1 0
400 134 1 -0.82 15.859972034255286 16.932215462676588 1.2898627399785587 -1 -1 0
56 19 2 0.41 17.019963598453085 13.562664492729482 3.9986482583431706 -1 0 0
55 19 1 -0.82 17.333932434343104 12.817814428363109 4.63205151333339 -1 0 0
57 19 2 0.41 17.88241863175739 13.294316861901171 5.429970563340385 -1 0 0
402 134 2 0.41 15.80410845029259 17.52010163707044 0.40638990865883756 -1 -1 0
349 117 1 -0.82 4.401636060949922 0.18185826006043052 6.381870798773308 0 0 0
350 117 2 0.41 3.6956868303856427 0.22863757893144857 7.182697909348494 0 0 0
471 157 2 0.41 1.9654295798181924 3.7094828061156986 6.5977912601705055 0 0 0
279 93 2 0.41 5.645708631934235 4.255248653838404 6.23612101913455 0 0 0
403 135 1 -0.82 2.22125688502378 0.4275389757451111 8.281925123731048 0 0 0
404 135 2 0.41 2.1288100419801133 1.4754775850824426 8.264354838983634 0 0 0
94 32 1 -0.82 1.5841526824589158 3.0431491684063547 8.097843081312869 0 0 0
96 32 2 0.41 2.4300203688940116 3.032406468390244 8.67856865336473 0 0 0
572 191 2 0.41 4.576556920296368 2.8387510779631517 9.800731915770282 1 0 0
571 191 1 -0.82 3.7305623941223627 3.396157652771681 9.682573774778945 1 0 0
573 191 2 0.41 4.052465531808458 4.262397173596512 10.050656641219668 1 0 0
95 32 2 0.41 0.884630550210925 3.5588270277001937 8.63101684390061 0 0 0
311 104 2 0.41 5.852313982332569 0.4502988529711429 10.336823353400188 0 1 0
248 83 2 0.41 0.8770364365129978 4.101548430825836 10.969764169636905 1 0 0
99 33 2 0.41 3.610627976427754 1.6627036435612972 12.238253844028288 0 1 -1
247 83 1 -0.82 0.23437558808622017 4.01994159909382 10.110698967599154 1 0 0
405 135 2 0.41 2.291515344107768 0.06598824114233892 9.255827456651089 0 0 0
547 183 1 -0.82 6.05713654140181 2.0627576485709884 10.365270905937303 0 0 0
211 71 1 -0.82 0.20826319477814995 1.068590516106085 6.2794003849778015 1 1 0
212 71 2 0.41 0.7610941859914324 0.6530061757748208 7.083306199052814 1 1 0
213 71 2 0.41 0.1972484483807051 2.061794295603395 6.461792644109909 1 1 0
79 27 1 -0.82 4.707784244488682 5.737422208862573 10.850476989067424 0 1 -1
155 52 2 0.41 4.2849717852840286 5.820868464491478 7.456127744665344 0 0 -1
154 52 1 -0.82 4.305539969425166 5.600609800764689 6.472111266594 0 0 -1
80 27 2 0.41 5.620519866713356 5.817879685034849 11.303824772494679 0 1 -1
81 27 2 0.41 4.148030791282097 5.561421964731991 11.681796879163343 0 1 -1
505 169 1 -0.82 10.33519748865377 2.2207417459846823 7.021405498425237 -1 0 0
507 169 2 0.41 9.469095745480685 1.8222275372754144 6.86715455907247 -1 0 0
506 169 2 0.41 10.247446960210405 3.2615155843882615 7.1002442936870445 -1 0 0
369 123 2 0.41 7.222248163886405 1.995136807650986 6.964227446432993 0 1 0
367 123 1 -0.82 7.852289558193115 1.1959198097093533 7.007378141705503 0 1 0
389 130 2 0.41 12.147186334235458 5.10628032530877 6.245687531067067 0 0 0
368 123 2 0.41 7.395513143745797 0.2911574208705989 6.689832583185869 0 1 0
230 77 2 0.41 8.346930581221446 5.555634485520692 7.590330985421947 1 0 0
231 77 2 0.41 7.883238528318641 4.325008877265262 6.507084015135167 1 0 0
229 77 1 -0.82 8.588656088794465 4.602534369334348 7.25562625248555 1 0 0
459 153 2 0.41 8.388039288520043 3.449235988711344 8.57394274935279 0 0 0
458 153 2 0.41 8.958326400864461 3.7373931970726004 10.171353720986385 0 0 0
105 35 2 0.41 9.074896764901595 0.9958958442245226 10.064984470785328 0 1 0
457 153 1 -0.82 8.403158023587942 3.081100732331311 9.601190947652466 0 0 0
548 183 2 0.41 6.938675331033652 2.3888164860619763 9.899646612396143 0 0 0
549 183 2 0.41 6.195715695448499 2.4158732611877296 11.338594505650923 0 0 0
617 206 2 0.41 11.181424358761054 1.2527046527194887 8.339176440851713 0 1 0
557 186 2 0.41 10.390438712276552 5.887382121161813 11.006317233446332 0 0 0
463 155 1 -0.82 10.18069994411265 4.307660554685101 11.421075622875929 0 0 0
464 155 2 0.41 9.822895086120216 4.028700741023837 12.332610923838883 0 0 0
616 206 1 -0.82 11.759409125842165 0.5818632552946948 8.854182339219648 0 1 0
465 155 2 0.41 11.01207718741848 3.6826221797171144 11.251339103852915 0 0 0
618 206 2 0.41 12.312059434951596 0.1836697635637563 8.081315517635009 0 1 0
103 35 1 -0.82 8.553244090391308 0.31557498829457764 9.54629726097219 0 1 0
104 35 2 0.41 8.09583605241902 0.7109125334515864 8.697718509812342 0 1 0
263 88 2 0.41 14.260244227578305 3.3220120587270725 6.394521366680187 0 0 0
559 187 1 -0.82 17.616694754721948 3.7671338287717333 6.351646745305683 -1 0 0
561 187 2 0.41 16.652215163054343 3.565276414138983 6.658459235644905 -1 0 0
93 31 2 0.41 15.474111988509106 0.9505477237471442 7.045876530486191 -1 1 0
525 175 2 0.41 17.568772320314604 4.9261149258582915 7.619370945539476 -1 1 0
524 175 2 0.41 18.223551855999983 5.215520984303817 9.033939710476137 -1 1 0
262 88 1 -0.82 15.031953182375483 3.4722889599520275 7.086651839379875 0 0 0
264 88 2 0.41 14.49363689574351 3.791384640618448 7.923825838733339 0 0 0
249 83 2 0.41 17.947671948712458 3.5207406257476017 10.31765108968849 0 0 0
452 151 2 0.41 16.141769356793606 2.7563323785861797 11.125258725188695 -1 0 0
451 151 1 -0.82 16.296585111489097 2.2081106498025416 10.253867787740452 -1 0 0
453 151 2 0.41 15.86254510581011 2.7852281214993817 9.559647606932094 -1 0 0
82 28 1 -0.82 13.984070377275566 4.599804568107513 9.177628176904406 0 0 0
83 28 2 0.41 13.21645487185857 4.277839336828568 9.76875006940937 0 0 0
523 175 1 -0.82 17.725114105728526 5.70511553405528 8.316111359464054 -1 1 0
245 82 2 0.41 14.67817634914936 0.9904170614871022 10.28941589655903 -1 0 0
92 31 2 0.41 17.097198268317925 0.6572507859692998 6.498005344319948 -1 1 0
91 31 1 -0.82 16.160769656168778 0.17030751922818324 6.850460824092265 -1 1 0
246 82 2 0.41 13.16017436646195 0.5104040517176901 10.177174996406604 -1 0 0
244 82 1 -0.82 13.919493737534529 0.5064246650981551 10.846091817066553 -1 0 0
84 28 2 0.41 14.326646309672748 5.597514187745404 9.424718896300982 0 0 0
1 1 1 -0.82 13.02042827745339 3.224224650668926 11.294336858941975 0 0 -1
344 115 2 0.41 14.713912070852688 4.560228639194418 12.32050672938506 -1 0 0
3 1 2 0.41 13.081040250471409 2.292758012356842 10.985066770594532 0 0 -1
2 1 2 0.41 13.340322430684427 3.4435421166693247 12.277352707317926 0 0 -1
343 115 1 -0.82 15.669121040433357 4.157893872653825 12.24626945685925 -1 0 0
569 190 2 0.41 0.9293600329147936 8.919436653901393 6.292171814397344 0 0 0
492 164 2 0.41 4.227075174390689 6.699581610790599 9.55225445162669 0 0 0
490 164 1 -0.82 3.7575129613857454 7.25639743968395 8.850402958318144 0 0 0
605 202 2 0.41 3.154242455535848 10.056258061258086 7.041685007037908 0 0 0
491 164 2 0.41 2.7363191863872838 7.274898305808778 9.099550803979717 0 0 0
604 202 1 -0.82 2.875947946650814 9.096157985422469 6.882151550365798 0 0 0
606 202 2 0.41 3.3903821502863174 8.497708913854916 7.43917147388155 0 0 0
447 149 2 0.41 3.856350873115239 9.197869095049953 9.484109121756148 0 0 0
445 149 1 -0.82 3.63480641791597 10.048118270077799 10.031988772414055 0 0 0
446 149 2 0.41 4.507461146594171 10.340779651639481 10.516375712794794 0 0 0
255 85 2 0.41 2.546767923181348 11.14690052279484 9.450913306873867 -1 0 0
358 120 1 -0.82 1.0976978878265 7.487161462659838 9.33165371594142 1 0 0
359 120 2 0.41 0.5893105230622907 8.385879267690367 9.118794473109844 1 0 0
197 66 2 0.41 2.9421861203299833 10.005905791761114 11.685260831724953 1 0 0
355 119 1 -0.82 6.0604061064512225 10.520280742646662 10.702129836488758 0 0 0
356 119 2 0.41 6.108301338441919 11.505350751521327 10.538558865690115 0 0 0
360 120 2 0.41 0.4138235822898937 6.780969652840572 9.147771345326905 1 0 0
253 85 1 -0.82 1.8873207480564083 11.721895088631467 8.88738052579373 -1 0 0
145 49 1 -0.82 3.7159332269929313 11.996400457740682 6.965647825770034 0 0 -1
254 85 2 0.41 2.3884343577798597 11.99510217545273 7.945002980619585 -1 0 0
182 61 2 0.41 1.0739052391775303 7.677160282340085 11.139882333821353 0 0 -1
181 61 1 -0.82 0.6544735642768257 7.648372296108264 12.122933164430876 0 0 -1
153 51 2 0.41 0.32880227004499796 10.44554573568509 8.596059505420891 0 0 0
594 198 2 0.41 0.6348625757487871 10.672807379779652 12.090389368623518 1 0 0
556 186 1 -0.82 10.594578739928203 6.872927747651636 10.6780767032013 0 0 0
39 13 2 0.41 6.722589360929823 6.581364268193762 7.87547873789193 -1 0 0
624 208 2 0.41 8.793971298938374 10.985251394133916 6.969287934629895 0 0 0
38 13 2 0.41 7.430022144053991 7.671820020383042 6.916611962503612 -1 0 0
558 186 2 0.41 10.57745750135726 6.975760835753048 9.639920868904905 0 0 0
357 119 2 0.41 6.950169347494016 10.101055764405036 10.487226132224094 0 0 0
341 114 2 0.41 8.747993111493132 8.159386620073136 11.386266580371993 0 0 0
37 13 1 -0.82 7.568693431774746 7.179252496838782 7.802431188390782 -1 0 0
88 30 1 -0.82 8.329635266022619 9.115794957679098 9.637352199499887 0 0 0
90 30 2 0.41 8.685974227846266 9.976170680206623 9.178905276546246 0 0 0
89 30 2 0.41 8.018009245887699 8.485445106459888 8.907258955076315 0 0 0
412 138 1 -0.82 9.180376609121488 11.284011520059593 8.53244666051536 0 0 0
414 138 2 0.41 10.135742083275392 10.854391852215029 8.447200373678623 0 0 0
149 50 2 0.41 9.623996198504873 7.518434502164188 7.7513670243405475 -1 0 0
150 50 2 0.41 11.252029016000648 7.038760993078178 7.210506329451288 -1 0 0
148 50 1 -0.82 10.67619202004462 7.52843723016978 7.968073731934416 -1 0 0
7 3 1 -0.82 11.780954609656728 9.829191913149037 8.735113579471157 0 -1 -1
9 3 2 0.41 11.229955496519395 8.954012220519102 8.393654242418505 0 -1 -1
413 138 2 0.41 9.21395689760039 12.186703540040805 8.986300096042015 0 0 0
14 5 2 0.41 11.615606460719352 11.739904401290353 12.013777833473855 0 -1 -1
8 3 2 0.41 12.004779773526181 9.849460330483117 9.702984918517442 0 -1 -1
411 137 2 0.41 12.004027561266621 7.676544586324674 11.001408263280144 0 0 0
86 29 2 0.41 11.734083760316095 11.821350502398664 6.6419508806742344 0 0 0
423 141 2 0.41 7.552876560584146 6.801466230905437 12.243583752609846 0 1 0
597 199 2 0.41 6.882824908001227 10.446899842913753 12.359230006922592 0 0 0
305 102 2 0.41 9.429992517008367 10.784671427654054 12.237314683966558 1 0 0
13 5 1 -0.82 12.492529404845847 12.338824615395815 11.948752032050297 0 -1 -1
151 51 1 -0.82 18.375418138803976 9.594102477344306 8.47103812940418 -1 0 0
152 51 2 0.41 18.35202941384708 9.57677246478898 7.445553786337173 -1 0 0
161 54 2 0.41 16.956078680729814 6.662408748962399 6.83281443684826 0 0 0
321 107 2 0.41 17.117399048693958 9.464554655887564 10.766447466642976 0 0 0
272 91 2 0.41 15.696221237057685 7.549565685683284 10.127739672399471 -1 0 0
273 91 2 0.41 15.78274124528218 7.26660561497737 8.642198549780534 -1 0 0
271 91 1 -0.82 15.123880877359271 7.085530381469224 9.40234128037588 -1 0 0
410 137 2 0.41 13.527473093172398 7.939100985596991 10.39276372507513 0 0 0
517 173 1 -0.82 13.381105252189318 9.278439630118868 6.565142921070553 0 0 0
519 173 2 0.41 14.218490894113792 9.804073157604929 6.608212624773134 0 0 0
518 173 2 0.41 12.809467998841756 9.525003862202304 7.366895647066427 0 0 0
409 137 1 -0.82 12.907856701046077 8.200967746014342 11.101928647250137 0 0 0
319 107 1 -0.82 16.84919220898483 8.48633892637248 10.980841132253541 0 0 0
320 107 2 0.41 17.629076529203903 8.223088960583805 11.634169897135875 0 0 0
322 108 1 -0.82 15.520782015339353 10.994065265159495 6.951971950662169 0 0 0
323 108 2 0.41 15.561943582148476 11.488427494215136 7.877170913974375 0 0 0
440 147 2 0.41 14.000847358251525 11.151932017734223 11.735594934387114 0 -1 0
552 184 2 0.41 15.84817349485618 11.809337163480722 10.083873393303099 0 -1 0
324 108 2 0.41 16.23810773060317 11.194998275612283 6.405241101960727 0 0 0
592 198 1 -0.82 18.151427292160733 10.86882352469224 12.013317142167772 0 0 0
439 147 1 -0.82 14.981753161555888 10.969801754989282 11.388644092427079 0 -1 0
441 147 2 0.41 15.174379533657225 10.001248275076188 11.629159394433843 0 -1 0
593 198 2 0.41 18.040915529864357 11.871748946683681 11.83993884398354 0 0 0
147 49 2 0.41 4.2694893967311085 12.835555130815164 7.191631913031244 0 0 -1
546 182 2 0.41 1.6498948914407863 17.88977281253567 11.692011687615997 0 -1 0
544 182 1 -0.82 2.0176129730562216 17.653855205520834 10.750608561504459 0 -1 0
545 182 2 0.41 1.2874729698366811 17.228327873319586 10.135706608148793 0 -1 0
333 111 2 0.41 4.658839195464295 16.63626199214359 10.272320439304941 0 -1 0
332 111 2 0.41 3.191353999489698 16.587324408999578 10.275724766927125 0 -1 0
331 111 1 -0.82 3.924125638252134 16.016764487039342 9.942736949721237 0 -1 0
313 105 1 -0.82 4.866161562372463 14.419164970966392 7.932620993056717 0 0 0
314 105 2 0.41 4.445776597781374 15.136053238650975 8.45696702673606 0 0 0
641 214 2 0.41 5.6875951623263745 13.885415647370033 9.078554803331574 0 0 0
462 154 2 0.41 2.814822594789365 14.587439174095627 10.576441456128912 1 -1 0
461 154 2 0.41 2.3785019403989165 13.002624761845402 10.197322668906743 1 -1 0
460 154 1 -0.82 2.3676605750525215 13.729734928588114 10.928666702236129 1 -1 0
315 105 2 0.41 5.319139425976722 14.795074333835448 7.096191535821525 0 0 0
366 122 2 0.41 5.881202610198992 17.74125810416072 12.04787295842502 0 -1 0
310 104 1 -0.82 6.074419768799327 18.00849391391019 10.368578973070045 0 0 0
498 166 2 0.41 0.5499714687925376 12.848873387127496 8.932321450212223 1 0 0
309 103 2 0.41 0.39189973778756126 15.310465494313815 9.363869763135384 0 0 0
307 103 1 -0.82 0.08741239778959757 16.280654275960497 9.51902928651664 0 0 0
167 56 2 0.41 0.21363083794763682 16.69795860007076 7.806541348948411 0 -1 0
598 200 1 -0.82 9.22063453460903 13.902334866043297 6.412528078640534 0 0 1
600 200 2 0.41 9.708705418071082 14.776941022536574 6.293933081843058 0 0 1
567 189 2 0.41 10.059433913935491 16.456890553381307 7.047828909921796 0 -1 0
87 29 2 0.41 11.343041718811147 13.445336561308894 6.8327597768198896 0 0 0
483 161 2 0.41 6.4556876885088625 13.719939136387053 11.700410223031355 0 -1 0
312 104 2 0.41 7.092846544480809 17.94862691507716 10.189942944425061 0 0 0