LAMMPS data file via write_data, version 22 Jul 2025, timestep = 200000, units = real

648 atoms
2 atom types
432 bonds
1 bond types
216 angles
1 angle types

0 18.552 xlo xhi
0 18.552 ylo yhi
0 18.552 zlo zhi

Masses

1 15.9994
2 1.008

Pair Coeffs # lj/cut/coul/long

1 0.102 3.188
2 0 1

Bond Coeffs # harmonic

1 450 0.9572

Angle Coeffs # harmonic

1 55 104.52

Atoms # full

231 77 2 0.417 2.711202378915797 3.0566531548002565 3.9382246480875778 0 0 0
230 77 2 0.417 2.6011413600884525 4.322805248489429 3.115643031485349 0 0 0
229 77 1 -0.834 2.5743182846264876 3.3686877632050254 3.043725370010772 0 0 0
193 65 1 -0.834 4.63603349201247 1.715150484989989 2.449754048835583 0 1 0
194 65 2 0.417 5.226091292580951 2.3336714916556898 2.8804457796448215 0 1 0
195 65 2 0.417 3.8792523662152103 2.2430359659929144 2.195095304486741 0 1 0
50 17 2 0.417 2.1664596218098904 3.6759633300639125 0.9639838908560306 1 0 0
49 17 1 -0.834 2.296842262883333 4.347662663991227 0.29461687373179707 1 0 0
485 162 2 0.417 4.309768378624812 0.08252999881465953 2.9346316541435074 0 0 0
51 17 2 0.417 2.7042159023028276 5.076699336779812 0.7623604581831745 1 0 0
486 162 2 0.417 3.317323357532296 18.195315770069033 3.990112049392579 0 -1 0
637 213 1 -0.834 1.7128244105574566 0.10250194057818461 5.03694101855324 0 1 1
638 213 2 0.417 0.7955039672790518 0.071780735782431 5.308623275058134 0 1 1
639 213 2 0.417 1.9680415597099568 1.0172606889851512 5.156575790590276 0 1 1
499 167 1 -0.834 1.798916260543115 5.976717428162861 3.312556709334673 1 1 1
501 167 2 0.417 2.168935585279695 6.777119358632344 2.9401668023057748 1 1 1
500 167 2 0.417 1.0871672905588525 6.2807818290696895 3.8757529681842233 1 1 1
492 164 2 0.417 8.911507867820944 2.044543249403046 2.4435333745055523 0 0 1
490 164 1 -0.834 9.06955489292501 2.6615736100209193 3.1580446766037804 0 0 1
491 164 2 0.417 9.966536402326536 2.9653358910418213 3.018816532539714 0 0 1
248 83 2 0.417 9.414894325171055 1.304426360347225 18.451609802989786 0 0 -1
134 45 2 0.417 11.665271014130086 4.2958325417351695 3.204073282926485 0 0 0
133 45 1 -0.834 11.616993780739897 3.380660887024923 2.9277365527718486 0 0 0
135 45 2 0.417 12.275577840636226 2.934224871745247 3.4598960494706983 0 0 0
239 80 2 0.417 8.713120039237529 4.502939802532068 3.4070069910845833 0 -1 0
238 80 1 -0.834 8.550380633550153 5.341912451624667 3.8381364394114073 0 -1 0
56 19 2 0.417 10.847360296285439 3.1639222836748457 0.896652941872985 0 1 1
249 83 2 0.417 9.1970631629311 0.15201776742403963 0.856897225237635 0 0 0
240 80 2 0.417 8.162108188086087 5.107273952571456 4.681001243153609 0 -1 0
569 190 2 0.417 11.597077667737516 1.685697851563256 18.378161056317055 0 0 0
568 190 1 -0.834 12.405376903278956 1.2038192944001678 18.203011916008226 0 0 0
376 126 1 -0.834 11.577196166268958 6.371994529664847 2.6405740544316956 0 0 0
34 12 1 -0.834 8.734239821366884 18.115162943295367 2.420289149115257 0 -1 0
546 182 2 0.417 8.990079344495449 1.4246829598281925 5.714349617118957 -1 0 1
544 182 1 -0.834 8.131397583553968 1.6100586270047117 5.334174255123165 -1 0 1
545 182 2 0.417 8.323726987517063 2.098030285887847 4.533471526615613 -1 0 1
221 74 2 0.417 9.556575803709002 6.22842424885465 17.735565599546778 0 0 0
570 190 2 0.417 12.274775356257138 0.8238159750704465 17.334235453581538 0 0 0
429 143 2 0.417 12.667456306007763 0.2615539891174991 1.1094382629026072 -1 1 0
474 158 2 0.417 11.148707702343753 0.4429159944436473 4.660877770846708 0 0 0
378 126 2 0.417 11.370203274476701 6.990193633246558 3.3414418143541176 0 0 0
472 158 1 -0.834 11.335831970465449 18.219369855349562 4.131968970561193 0 -1 0
35 12 2 0.417 9.655316290342045 17.9128694816487 2.584384350411953 0 -1 0
473 158 2 0.417 11.832079286899482 0.0007274961908537566 3.384410871455096 0 0 0
247 83 1 -0.834 9.22623771120523 0.36633080972077536 18.476453898262985 0 0 -1
596 199 2 0.417 16.99423108628561 0.8774085673675323 5.768951900833283 -1 0 0
538 180 1 -0.834 16.945759588954086 5.799977672224616 2.3710353545511706 0 1 1
161 54 2 0.417 15.068405834583904 2.6242285445462707 2.62104967759926 -1 0 0
245 82 2 0.417 14.266562428424896 2.4551507494619225 4.410772503209156 0 0 0
160 54 1 -0.834 15.699576256910609 2.8335409360104844 3.3095582274532953 -1 0 0
555 185 2 0.417 14.0315797111679 1.8200623274527754 0.6087003231851269 0 0 1
553 185 1 -0.834 14.856289655502103 2.1082136639645443 0.9999216378217288 0 0 1
554 185 2 0.417 15.511702747200333 1.5047376475239223 0.6499470443329077 0 0 1
597 199 2 0.417 16.24672362418585 1.85551151582078 4.887792208539665 -1 0 0
539 180 2 0.417 17.09380691547787 5.0258146221790225 1.8279097757350797 0 1 1
244 82 1 -0.834 13.398904837169841 2.516180603501575 4.810369004308414 0 0 0
246 82 2 0.417 13.485332235672676 3.2068731253878595 5.46741233683846 0 0 0
162 54 2 0.417 16.355657330846633 3.379172069135221 2.875880835688043 -1 0 0
567 189 2 0.417 15.000232109349781 5.991912511956576 2.7735506352761603 0 0 0
566 189 2 0.417 14.519021443248814 5.694903289251484 4.177871467317098 0 0 0
377 126 2 0.417 12.533776308408564 6.345118922174682 2.6190350768810196 0 0 0
595 199 1 -0.834 16.22193795696396 1.4426282078065833 5.751009953984747 -1 0 0
633 211 2 0.417 13.424014410863055 0.5807334332608517 5.65197559068873 -2 1 0
540 180 2 0.417 17.357311117865237 6.515461512991445 1.8863292349124856 0 1 1
496 166 1 -0.834 13.761972453422116 3.8898239578625176 6.99122546649856 0 0 0
199 67 1 -0.834 15.644133187519584 5.758588839834117 6.309206259620082 -1 0 -1
498 166 2 0.417 13.75526247767221 3.5379960905878636 7.881396196827509 0 0 0
200 67 2 0.417 16.383958364950068 6.058015201766484 5.780779939918137 -1 0 -1
169 57 1 -0.834 16.829364665706812 0.6769994736390569 0.1406767467708822 -1 1 0
398 133 2 0.417 6.0567440091544285 8.905625347408003 1.007062022935126 0 0 0
253 85 1 -0.834 6.729179135556551 8.494765079621276 5.055441935720508 0 0 0
254 85 2 0.417 5.87065981980794 8.157131523960857 5.310745669787995 0 0 0
70 24 1 -0.834 4.840003278073482 8.652968253083735 2.236312488520625 0 0 0
72 24 2 0.417 5.152968528551042 9.256441627805499 2.910185228266154 0 0 0
470 157 2 0.417 6.048559518094803 12.089740355807237 1.0291585278721787 0 0 1
469 157 1 -0.834 5.151597397060033 11.810428621484633 1.2126678731906302 0 0 1
71 24 2 0.417 3.8888655694046435 8.76042807543373 2.2409248596001325 0 0 0
303 101 2 0.417 1.740238870078281 9.090911535999814 3.4781784076988136 1 0 1
301 101 1 -0.834 2.3210728986670883 8.758245868675376 2.793929027747727 1 0 1
302 101 2 0.417 1.775834269172047 8.73310597623521 2.0075991859855966 1 0 1
138 46 2 0.417 0.3369228852238249 8.134075171044778 5.046170366463162 1 0 0
18 6 2 0.417 4.153403560607576 13.445211223216395 1.4833887656839846 1 -1 0
471 157 2 0.417 5.201854207362785 11.3909025119947 2.0715647693303403 0 0 1
517 173 1 -0.834 3.762240126654988 6.505488996585117 1.0528796058443337 0 1 1
519 173 2 0.417 4.2648631763063545 7.059727076854492 1.6498905397155326 0 1 1
578 193 2 0.417 1.2256114809877774 10.172078128855299 0.2118921984246448 0 0 1
577 193 1 -0.834 1.3232195646911986 9.22067826237503 0.25117047453771674 0 0 1
268 90 1 -0.834 2.4163876281301895 11.11922691531034 4.76760549762707 1 -1 0
255 85 2 0.417 7.234061541130803 8.506203057675524 5.868580757592702 0 0 0
624 208 2 0.417 0.763561469553091 11.266056076337863 4.329485860939567 0 0 1
394 132 1 -0.834 4.1832455306279615 8.251187057829632 5.502301246327195 1 0 1
395 132 2 0.417 3.3611074131667715 8.528338725942689 5.09794039626507 1 0 1
269 90 2 0.417 3.116440363577799 10.895620090630329 4.154288332455405 1 -1 0
137 46 2 0.417 0.921934266944382 9.210269898492685 5.935811738702695 1 0 0
136 46 1 -0.834 1.1467443380735969 8.612994437052086 5.222401429258497 1 0 0
288 96 2 0.417 5.900459005996298 10.042463430178245 4.552718817379957 0 1 0
270 90 2 0.417 2.8727123223497295 11.42410650682118 5.551855474786948 1 -1 0
286 96 1 -0.834 5.469379907749436 10.761854475088175 4.0913305221451814 0 1 0
287 96 2 0.417 5.570821694230106 11.515123624462618 4.673161240113158 0 1 0
518 173 2 0.417 3.9400105559291383 6.865694011154745 0.18404023283071075 0 1 1
627 209 2 0.417 9.768483420511034 6.585281475186877 4.647782771457933 0 0 0
399 133 2 0.417 7.499690122381834 8.484878502670485 1.1880971846932842 0 0 0
397 133 1 -0.834 6.86718699113043 8.752425975148201 0.5213214095169533 0 0 0
219 73 2 0.417 8.557089242137842 7.045573226066435 3.036180886222264 -1 0 0
218 73 2 0.417 7.8265164529435225 8.368405903408252 3.1271323810442038 -1 0 0
217 73 1 -0.834 8.389253890174007 7.852617869277116 2.5496195087199216 -1 0 0
258 86 2 0.417 8.90059495949304 11.872193222088512 6.33237502324487 0 0 0
59 20 2 0.417 9.635740270543002 12.729451580917457 4.565448198186605 -1 -1 0
257 86 2 0.417 8.841032095055722 10.444913896398672 5.831155403064716 0 0 0
256 86 1 -0.834 9.204212043758318 11.305736014761871 5.623026968374604 0 0 0
588 196 2 0.417 10.710064452526813 6.807181808760556 1.294585150726951 0 0 1
586 196 1 -0.834 10.065756350217638 7.160392555233001 0.6811187533562981 0 0 1
587 196 2 0.417 9.405429562310998 7.57307864459937 1.2377968617142063 0 0 1
625 209 1 -0.834 10.302639856293721 7.228309707329988 5.114069619928726 0 0 0
228 76 2 0.417 13.414397069200726 8.329428774364747 0.44755274640807663 0 -1 0
626 209 2 0.417 9.672234236732404 7.746231794697655 5.614646588695287 0 0 0
598 200 1 -0.834 11.239540060323916 10.66114315989825 3.8948669113391006 0 -1 1
629 210 2 0.417 9.956989485652654 11.678986828065682 1.4645626384395396 0 0 1
630 210 2 0.417 9.43263966986495 12.732941358060913 2.4164724391807835 0 0 1
628 210 1 -0.834 9.160933215371458 12.152978201478025 1.7051004089860569 0 0 1
599 200 2 0.417 10.573640655303905 10.977337272992656 4.505465833072444 0 -1 1
565 189 1 -0.834 14.205940818886507 5.928061493141721 3.303886566500718 0 0 0
623 208 2 0.417 18.386022600823097 11.823490092849442 3.272546926601951 -1 0 1
600 200 2 0.417 11.985599548188224 10.434034090120532 4.4498881154082435 0 -1 1
226 76 1 -0.834 13.683970344154535 9.187546394857224 0.77496107304462 0 -1 0
614 205 2 0.417 14.701880903825565 8.956341044780165 4.3735215561038405 -1 0 0
306 102 2 0.417 11.436302200188962 10.919951685767723 2.2990244766203745 0 0 0
622 208 1 -0.834 18.423485599286995 11.587838123124941 4.199529387437566 -1 0 1
227 76 2 0.417 14.255134520151353 8.992365559366723 1.5178660225933847 0 -1 0
640 214 1 -0.834 17.383699115610607 7.33695764251676 4.760799028285121 -1 -1 1
641 214 2 0.417 17.058811682930234 7.052519004018732 3.9065305647815776 -1 -1 1
615 205 2 0.417 13.660453776196476 7.961201266689284 4.83937712442284 -1 0 0
642 214 2 0.417 16.97608955153124 8.191755791736055 4.900105770559211 -1 -1 1
620 207 2 0.417 18.391986162414245 8.328440452080956 0.5133283302248705 0 0 0
619 207 1 -0.834 17.729255483721058 7.641155909285465 0.4450655062467946 0 0 0
329 110 2 0.417 16.778718246294662 11.166957382736697 4.060380883255332 0 0 0
328 110 1 -0.834 16.060544425241 10.984951930085874 3.4543015072078145 0 0 0
330 110 2 0.417 15.752149733314708 11.848991211040765 3.181243830465199 0 0 0
621 207 2 0.417 17.78755319792562 7.34078762584934 18.09008585943597 0 0 -1
503 168 2 0.417 16.088137321359927 9.467804727126202 2.814802705867939 0 0 0
502 168 1 -0.834 15.957609769330027 8.552676462512132 2.566338346580611 0 0 0
504 168 2 0.417 16.44603760867466 8.453881843028494 1.7490809260140054 0 0 0
304 102 1 -0.834 11.540756555610706 10.975008030474735 1.349135052017679 0 0 0
305 102 2 0.417 12.157951046507627 10.275515898137913 1.1346273719181539 0 0 0
613 205 1 -0.834 14.115227268582172 8.760768097742293 5.104151797129408 -1 0 0
368 123 2 0.417 14.407474358347173 10.853420818231957 6.421081064077455 0 0 0
484 162 1 -0.834 3.9185802172685604 17.85443808111403 3.327900335469806 0 -1 0
366 122 2 0.417 3.8385142808080372 17.73375546588169 1.3202780310483102 0 0 1
365 122 2 0.417 3.1487418266042346 17.891443691309 18.533904549279104 0 0 0
12 4 2 0.417 5.398863585229598 13.760287744218807 5.30308410097087 0 -1 0
191 64 2 0.417 5.090572098705734 15.191813245369973 3.9965994394481203 0 0 0
190 64 1 -0.834 5.832792925343072 14.81167239255252 3.52667076081064 0 0 0
192 64 2 0.417 5.4393787673747145 14.368482425391226 2.7749795120856398 0 0 0
28 10 1 -0.834 1.5118154658878737 14.586627375986573 3.7246118647949116 1 0 0
30 10 2 0.417 2.420527465377937 14.285901102481779 3.7184458814593597 1 0 0
364 122 1 -0.834 3.938829968409044 17.536191742312823 0.38907602827002347 0 0 1
475 159 1 -0.834 3.889996597616563 15.739142203132074 5.0530626577106 0 0 0
477 159 2 0.417 3.221495277235523 16.146999945828803 5.603507774244015 0 0 0
476 159 2 0.417 4.079593827260191 16.393771219428842 4.380942498445775 0 0 0
528 176 2 0.417 1.6550313169998507 13.37313166064552 6.645093151037402 0 -1 0
526 176 1 -0.834 0.8827379838192668 13.86449001822076 6.365161374188785 0 -1 0
527 176 2 0.417 1.0010476776492552 13.980888697575578 5.422459943409041 0 -1 0
512 171 2 0.417 18.192713825904022 17.42042175260291 3.047779348100927 -1 0 0
370 124 1 -0.834 1.2836293278292812 14.04728806048974 0.6250854847785595 1 0 1
513 171 2 0.417 1.0125074924848745 18.039313380613976 3.212249527858688 0 0 0
511 171 1 -0.834 0.5255893673614647 17.407618314366733 2.6830010926762897 0 0 0
69 23 2 0.417 2.079893501291854 17.731070767456956 6.305971696069939 1 0 -1
67 23 1 -0.834 2.3952914527746607 17.210241377814103 7.044546439054518 1 0 -1
68 23 2 0.417 1.6007814956223212 16.862787819019797 7.449838640736754 1 0 -1
432 144 2 0.417 4.700125197949052 16.11719810648752 18.096110257247332 1 0 -1
372 124 2 0.417 2.0201538323767445 14.23541080981808 1.2067841333367626 1 0 1
29 10 2 0.417 1.5419322621895062 15.449955475362204 3.3123141933727918 1 0 0
165 55 2 0.417 0.18369673012740667 17.270675242854903 1.0998232290859242 0 -1 0
17 6 2 0.417 4.1858528952907115 14.886027991093341 1.019827280703392 1 -1 0
16 6 1 -0.834 3.890062856685209 14.329008700619365 1.7398756113681157 1 -1 0
362 121 2 0.417 5.810866085319355 17.982679016194 18.371701824238553 0 -1 0
36 12 2 0.417 8.251554871705014 17.507627870544546 2.9807783811258033 0 -1 0
58 20 1 -0.834 9.78039779831619 13.443601680052344 3.9447264016941377 -1 -1 0
81 27 2 0.417 7.0045508044605445 0.3289733474509498 5.72346727816052 1 1 0
80 27 2 0.417 5.8340820471920125 17.950804926544247 5.961552884781483 1 0 0
60 20 2 0.417 9.077823061017705 14.067211450520414 4.128387589056336 -1 -1 0
332 111 2 0.417 8.809448377388996 15.303520930324188 6.192006020202821 0 -1 0
333 111 2 0.417 10.31283031448918 15.126399720395849 6.211136927560197 0 -1 0
404 135 2 0.417 7.1560121985133165 15.501443608609826 4.221431302684724 -1 0 0
79 27 1 -0.834 6.637910017099403 18.040255997532473 5.449604713609131 1 0 0
403 135 1 -0.834 7.886166717731023 15.96255869049045 4.634322442622508 -1 0 0
405 135 2 0.417 7.478861087509919 16.70265822767645 5.084418651001734 -1 0 0
259 87 1 -0.834 11.784695628839438 15.856016374865009 5.647247164770607 0 -1 0
261 87 2 0.417 11.65307188598558 16.69230380585244 5.200559117841445 0 -1 0
203 68 2 0.417 7.9921420414384965 12.787291344954992 0.9081342170527159 0 1 0
21 7 2 0.417 8.402816009586282 16.67073297082558 0.4601747379216626 0 0 0
20 7 2 0.417 9.672185244356218 15.867412775368102 0.2723621645863715 0 0 0
19 7 1 -0.834 8.731923220001597 15.772596953280102 0.4245102866597637 0 0 0
204 68 2 0.417 7.84847621198639 14.241251089715703 0.5115787399757314 0 1 0
260 87 2 0.417 12.589780689941337 15.5048342661349 5.266798753556374 0 -1 0
581 194 2 0.417 11.225633645499821 14.407705559862052 3.1320130810200646 0 -1 1
363 121 2 0.417 7.2182606005855 18.441661510213752 18.05473033028184 0 -1 0
202 68 1 -0.834 7.537718361894146 13.36272525496508 0.2928239164740494 0 1 0
40 14 1 -0.834 17.82144521440599 17.94531917939184 5.727839941613886 0 0 -1
42 14 2 0.417 17.35783929269547 17.35530531936245 5.133546216383971 0 0 -1
468 156 2 0.417 15.341816259878838 13.201355773853988 0.9538088080634941 0 0 1
467 156 2 0.417 15.938543069754678 12.14897590657686 0.04369408780043565 0 0 1
428 143 2 0.417 12.596241490912304 17.309284845606793 1.2643506044069335 -1 0 0
308 103 2 0.417 15.973911085295866 15.935034885328957 3.4887642842070363 -1 0 0
307 103 1 -0.834 16.6456245542307 16.351849299096287 4.0284850421555785 -1 0 0
41 14 2 0.417 18.102590584834626 17.38508600264164 6.4512540041390425 0 0 -1
427 143 1 -0.834 12.742415004799682 18.115176910487595 1.7597323678690664 -1 0 0
73 25 1 -0.834 12.529073135498917 13.116120196237008 0.4712955434595577 -1 0 0
74 25 2 0.417 13.41223504931971 12.850476678060692 0.214994233791599 -1 0 0
466 156 1 -0.834 15.211570554840048 12.768096363742492 0.11027212369627618 0 0 1
150 50 2 0.417 15.715332111399542 16.350365736245983 6.063250718419369 0 -1 0
309 103 2 0.417 17.155166606925793 15.623089307987227 4.38275556469901 -1 0 0
155 52 2 0.417 14.097373196486178 16.821840277071846 2.626454276187877 0 -1 0
582 194 2 0.417 11.99729611300764 13.896816348378062 1.9339210817011931 0 -1 1
156 52 2 0.417 13.223317186096624 15.609151252267647 2.865842248863488 0 -1 0
154 52 1 -0.834 14.09057393717346 15.966641820097648 3.056362630873082 0 -1 0
580 194 1 -0.834 11.958357884589955 14.623880709894943 2.5552849552632138 0 -1 1
31 11 1 -0.834 15.462780796148696 13.469024191995521 2.787334391919142 0 -1 0
32 11 2 0.417 14.851387716270311 14.205134094271765 2.8112618144570303 0 -1 0
33 11 2 0.417 15.98373671255033 13.563728885120092 3.584747558443806 0 -1 0
379 127 1 -0.834 16.511783468936525 13.66795497021877 5.186611063706397 -1 -1 0
380 127 2 0.417 17.363901564885076 13.544853263525056 5.604908218243006 -1 -1 0
551 184 2 0.417 13.368131623246564 13.778553940580347 7.186495925397768 0 -1 0
170 57 2 0.417 17.492683682057297 18.539039495311915 0.15463887630755324 -1 0 0
97 33 1 -0.834 4.120268542425612 2.977209823728125 7.598538220781043 0 1 0
98 33 2 0.417 5.0409609118646745 2.7174952885510693 7.631790566375962 0 1 0
508 170 1 -0.834 2.3424954078392104 2.527963514326563 5.603925222018481 0 1 0
509 170 2 0.417 1.5940832161144987 2.943815165680532 6.031918682317544 0 1 0
510 170 2 0.417 3.0814505241322303 2.707012323715743 6.185404955667233 0 1 0
392 131 2 0.417 18.19272403565057 3.51724060017379 7.508651247425389 -1 -1 0
391 131 1 -0.834 0.585591721282219 3.5799764050215077 7.36893331782392 0 -1 0
216 72 2 0.417 2.4575509999427196 0.9217971390934719 9.894763005530786 0 0 0
215 72 2 0.417 3.1858248234190314 1.5735769931322119 11.050918462094796 0 0 0
214 72 1 -0.834 3.221181448695783 0.8192472896857476 10.462727688621642 0 0 0
339 113 2 0.417 1.1142792349431963 1.6499204214833127 8.80007065440061 1 0 0
337 113 1 -0.834 0.8259248341753189 0.9239120760778312 9.353239171104482 1 0 0
393 131 2 0.417 0.814145300507244 4.460768203876889 7.665919623199265 0 -1 0
542 181 2 0.417 2.041809426167581 4.45474570632507 10.22692997676491 0 0 1
602 201 2 0.417 0.39959441101458754 3.755394761287764 11.493424551592915 0 0 1
211 71 1 -0.834 0.6142273247655301 6.022308155065822 8.43005849277612 1 1 0
99 33 2 0.417 3.903234479640293 3.207962395076173 8.501799549302717 0 1 0
180 60 2 0.417 2.687905103887392 3.2126808080606217 12.121172610096668 0 0 0
178 60 1 -0.834 3.543395674953207 2.841984478743137 12.337856503397166 0 0 0
601 201 1 -0.834 1.2642074313379488 4.068987009972028 11.758633987122417 0 0 1
213 71 2 0.417 0.39864345240404364 6.897269763591982 8.107261949333758 1 1 0
280 94 1 -0.834 10.680711185397099 0.892027786057041 6.522389543352128 0 0 0
282 94 2 0.417 10.610689181374331 1.4478363550259141 7.2985374120796696 0 0 0
267 89 2 0.417 4.992660880219695 1.0046248744500326 12.187091898139837 0 0 0
281 94 2 0.417 11.098997392281998 0.0909268572571161 6.837834890907334 0 0 0
646 216 1 -0.834 10.220727631270224 2.9296765709955364 8.575714769908524 1 0 0
648 216 2 0.417 10.282089880266142 3.812420531968718 8.210708482975699 1 0 0
357 119 2 0.417 6.618898813212222 4.630634489133922 6.977994066154836 0 0 0
355 119 1 -0.834 7.1341503891632545 5.232599224861163 6.440978211691439 0 0 0
356 119 2 0.417 6.789248165124482 6.099664035086331 6.654221977721934 0 0 0
143 48 2 0.417 7.397788652454006 4.225055052078544 9.211858957836938 0 0 -1
142 48 1 -0.834 8.304501080111834 4.363256025342808 9.485729095938803 0 0 -1
144 48 2 0.417 8.802839559929929 3.6987884424056077 9.009941982323511 0 0 -1
455 152 2 0.417 9.961535245421702 0.5472436239626268 11.385193225464766 0 0 0
533 178 2 0.417 7.248542528229609 1.9713648994568083 7.337580009187394 -1 1 0
493 165 1 -0.834 12.009464623704671 6.053037731352084 6.999696687361501 0 0 0
454 152 1 -0.834 9.949583677265956 1.173949823567738 12.108607585729112 0 0 0
532 178 1 -0.834 6.7784257454747365 2.4917865897149545 7.989027084959656 -1 1 0
534 178 2 0.417 6.432991551451023 1.847576826389431 8.60700832705881 -1 1 0
266 89 2 0.417 5.578330509350116 0.31746673326800395 10.971896480269644 0 0 0
458 153 2 0.417 8.344585218671426 3.8432261752715515 11.10200708965292 -1 0 0
265 89 1 -0.834 5.487370649279757 0.2296822396779698 11.920712532572582 0 0 0
9 3 2 0.417 9.82198531631835 4.4652654925177675 12.893194084932547 0 0 0
7 3 1 -0.834 10.673239457640959 4.6655808572342785 13.282388088459392 0 0 0
8 3 2 0.417 10.541092897456455 4.546551155640065 14.222920413624607 0 0 0
338 113 2 0.417 18.5044771666273 1.1800650741515988 9.64939218935117 0 0 0
562 188 1 -0.834 17.31611239988752 4.558243118997842 9.873347970721763 -1 0 1
647 216 2 0.417 11.023867702956753 2.8245145421785267 9.08575280229405 1 0 0
497 166 2 0.417 13.43714727716094 4.785362275362931 7.0846682169138955 0 0 0
315 105 2 0.417 15.939266552692017 4.198746336703054 7.0751166323132795 -1 1 0
314 105 2 0.417 16.29302655139567 2.7352061540554637 7.232593829668778 -1 1 0
103 35 1 -0.834 16.957712663082503 1.7499826475935043 9.920687552953664 -1 1 -1
313 105 1 -0.834 16.51003657290989 3.6063770818434215 7.5645571755464145 -1 1 0
632 211 2 0.417 14.87553722650264 0.5275325428893027 6.07876154909438 -2 1 0
631 211 1 -0.834 14.009340434492744 0.18344082176387558 6.296788610833211 -2 1 0
563 188 2 0.417 17.07610199788644 4.146656242903815 9.043153389700741 -1 0 1
589 197 1 -0.834 12.72272762950552 1.7128744233405035 8.777780343741732 0 1 0
591 197 2 0.417 13.008801736986781 1.5505949082948347 7.878859454021832 0 1 0
105 35 2 0.417 16.772917114137712 0.895980244349661 9.529839321630536 -1 1 -1
590 197 2 0.417 12.761428557806173 0.8549554183997592 9.20052027017795 0 1 0
564 188 2 0.417 16.487193183030598 4.653572904721508 10.34242898487446 -1 0 1
201 67 2 0.417 15.427034779518632 6.5075301592498755 6.864352152199526 -1 0 -1
104 35 2 0.417 16.09509213539675 2.135629293539864 10.073639570549648 -1 1 -1
294 98 2 0.417 14.116518168601127 2.4721999402552393 11.679512754383474 -1 0 0
292 98 1 -0.834 14.525429535681596 2.420570768990564 10.815592770495654 -1 0 0
293 98 2 0.417 13.862028409638569 2.0111510418803173 10.260159366847716 -1 0 0
182 61 2 0.417 14.352447293282333 4.449901282556136 11.010814298448791 -1 0 0
384 128 2 0.417 4.037238368095595 12.346992497491751 6.647778061502415 0 0 0
382 128 1 -0.834 3.1975071714154666 12.387437450311454 7.105432460475206 0 0 0
541 181 1 -0.834 2.587900449961717 4.8684883619836645 9.55847398956478 0 0 1
543 181 2 0.417 1.9732203441355947 5.370688191535434 9.02350152538172 0 0 1
396 132 2 0.417 3.9725120253956163 8.151758104980134 6.430706921351326 1 0 1
241 81 1 -0.834 5.473480531451159 7.48324802837881 9.989858164155985 0 0 0
242 81 2 0.417 4.8471047135400624 7.1110536162815565 9.369087314780327 0 0 0
243 81 2 0.417 5.041418649145624 7.408450740489823 10.840716392130776 0 0 0
112 38 1 -0.834 3.6016016018288677 8.58373099127988 8.316750996493235 0 -1 0
113 38 2 0.417 2.6885020657410026 8.817713612456426 8.150218175582028 0 -1 0
114 38 2 0.417 3.996139638986277 9.38562687447501 8.659584133421646 0 -1 0
423 141 2 0.417 4.881833539709249 11.08341998856234 9.71330144408419 0 0 0
421 141 1 -0.834 3.998632471253415 11.005817956637193 9.3525167543226 0 0 0
446 149 2 0.417 2.008858722568774 9.511264354068185 10.418680711041489 1 0 0
212 71 2 0.417 18.331261239362444 5.666002936865996 8.733554887230284 0 1 0
94 32 1 -0.834 17.429592926432093 8.628560292174207 9.59096758617723 -1 0 0
62 21 2 0.417 0.3397219784083614 9.085641270542315 8.954666443663879 1 0 -1
63 21 2 0.417 0.9176286798942206 10.203895312981722 8.113579714035026 1 0 -1
61 21 1 -0.834 1.1649579781115653 9.51659589918852 8.732190703469515 1 0 -1
383 128 2 0.417 3.3993373473274717 12.118092562495704 8.001507094113327 0 0 0
422 141 2 0.417 3.4210954468217656 11.09305420253766 10.110852166612567 0 0 0
386 129 2 0.417 2.820513865189083 6.554398891413053 10.790676082214496 0 1 -1
129 43 2 0.417 4.781756603720502 9.287593601614573 11.939526933528487 0 0 0
495 165 2 0.417 11.448825769146442 6.465921273850988 6.34285347075057 0 0 0
494 165 2 0.417 11.47129781164678 6.024396203430616 7.7907643019854245 0 0 0
354 118 2 0.417 6.045444624891893 11.352161899371863 11.64449260823915 0 -1 0
352 118 1 -0.834 6.295622338927036 11.45116047045026 10.725883776783746 0 -1 0
310 104 1 -0.834 8.947888883740426 8.929372389763422 6.941309859548369 -1 0 -1
311 104 2 0.417 8.370173303051391 8.810763141723903 7.695238483457334 -1 0 -1
312 104 2 0.417 9.779251487286754 9.216638740664868 7.318862606400512 -1 0 -1
424 142 1 -0.834 10.149417095152897 6.12088976495703 8.827888952737572 0 1 0
425 142 2 0.417 10.429355940740482 6.748888053205745 9.493835070252704 0 1 0
426 142 2 0.417 9.327722581858449 5.763926085206568 9.164974836630142 0 1 0
573 191 2 0.417 9.062251669163269 8.672669273997482 10.146540843454485 1 0 0
571 191 1 -0.834 9.703385294166749 8.149641281565554 10.627811272195482 1 0 0
572 191 2 0.417 9.205110180291856 7.7614200540568685 11.34700387514905 1 0 0
353 118 2 0.417 6.68529354314367 12.324029659725465 10.676008430169844 0 -1 0
252 84 2 0.417 6.669780331867822 8.511028032514469 9.257238564560248 1 0 0
251 84 2 0.417 7.2731081309174845 9.853951297936188 9.610010242918744 1 0 0
250 84 1 -0.834 7.351871129456603 9.127737029947221 8.991430370982986 1 0 0
479 160 2 0.417 12.12024591234005 9.035669801988572 10.077308892337758 0 0 0
419 140 2 0.417 10.273004062658243 11.071424699842975 8.865698557417595 -1 0 0
412 138 1 -0.834 11.526047183445996 10.188655300667685 7.813237134754614 0 0 0
43 15 1 -0.834 10.54466627810641 10.869822064697917 12.198394842710822 0 0 -1
420 140 2 0.417 10.128342698850984 11.358311021045418 10.345112129501365 -1 0 0
44 15 2 0.417 10.380121970008615 9.929131081466117 12.133146008786683 0 0 -1
418 140 1 -0.834 9.815989989928058 11.640140244151079 9.485321509563452 -1 0 0
95 32 2 0.417 16.557297178653208 8.235034351765261 9.569304349717546 -1 0 0
96 32 2 0.417 17.555550364769697 8.882773080381329 10.505157063662303 -1 0 0
413 138 2 0.417 12.14212679245 9.758869639462151 8.4065010197954 0 0 0
414 138 2 0.417 12.061048330027077 10.460838726265743 7.067635508749655 0 0 0
478 160 1 -0.834 12.98344438320237 9.3241709979668 9.780851053030375 0 0 0
480 160 2 0.417 13.558017851987932 9.172336558141582 10.531213279956637 0 0 0
66 22 2 0.417 14.315892342690036 8.301538622662296 6.787648128455827 0 0 -1
27 9 2 0.417 16.651742629616052 9.142824474100044 7.076105202695725 -1 0 0
26 9 2 0.417 17.598286536002558 10.29772128779892 6.826779902183282 -1 0 0
25 9 1 -0.834 17.18660338668976 9.549534616305333 6.394384838015949 -1 0 0
611 204 2 0.417 0.33284361472747154 12.19328588301675 6.922331900041161 1 0 1
64 22 1 -0.834 14.675892107173647 8.077359236808194 7.645771435494698 0 0 -1
610 204 1 -0.834 18.5004897337382 11.573709012328877 7.542516093959602 0 0 1
65 22 2 0.417 14.099591121398474 8.517871385877562 8.270317715083717 0 0 -1
612 204 2 0.417 18.142638689824516 12.12304772212816 8.239940961294304 0 0 1
367 123 1 -0.834 13.546205056435545 11.270966592800848 6.431205963516441 0 0 0
147 49 2 0.417 18.056504836739403 12.390218233606662 10.96047939581107 -1 0 -1
274 92 1 -0.834 14.474655441773955 8.388101880823685 12.103770408521036 -1 -1 0
145 49 1 -0.834 18.374922760410925 12.920811347734569 10.230196705048128 -1 0 -1
146 49 2 0.417 17.70283343106461 13.591697684525489 10.110033142381353 -1 0 -1
10 4 1 -0.834 5.406033194270138 12.941574003184563 5.798955287305029 0 -1 0
575 192 2 0.417 4.056410692519526 17.076275280503648 7.432521341333632 1 0 0
78 26 2 0.417 18.49648884472188 15.290919184429107 6.91679394378844 0 -1 0
285 95 2 0.417 0.6584960193633798 17.701785163248598 9.748223596363047 0 -1 0
284 95 2 0.417 1.482227652908291 16.670984109919118 10.490389622446012 0 -1 0
283 95 1 -0.834 0.5851351641019646 16.876226187233762 10.227078824304733 0 -1 0
441 147 2 0.417 3.497281316663874 17.66143725375061 10.419297305684145 0 -1 0
440 147 2 0.417 3.537218741737097 16.595485324598652 11.49356292124539 0 -1 0
439 147 1 -0.834 3.290949457469928 16.740667199197322 10.580050208442426 0 -1 0
521 174 2 0.417 0.5715530354675253 15.767173995393359 12.39417892447353 1 -1 0
520 174 1 -0.834 1.3244155431771127 15.263337111371007 12.70333616320645 1 -1 0
522 174 2 0.417 1.6011774338226126 14.75369156556577 11.941827121949707 1 -1 0
24 8 2 0.417 2.7950824906110676 13.27822030964182 10.271722999553226 0 -1 0
22 8 1 -0.834 2.2245665754007513 13.534032363847787 10.996501315973486 0 -1 0
23 8 2 0.417 1.3752299854538184 13.148879222384954 10.780825067688458 0 -1 0
263 88 2 0.417 4.7213784791062725 1.1189906938174063 9.420612243668934 0 0 0
342 114 2 0.417 5.638809892825319 15.464682134890847 9.5448984450393 0 -1 0
76 26 1 -0.834 18.03024265016655 15.988527337959347 7.377433830823963 0 -1 0
52 18 1 -0.834 6.128764657817564 16.488918688515877 12.690998094732144 1 0 -1
11 4 2 0.417 6.2399694808574315 12.952803736847889 6.2686956256546695 0 -1 0
48 16 2 0.417 12.132716721401497 16.34415225408343 8.5968873270649 0 -1 0
574 192 1 -0.834 4.921900082934451 17.47350442663216 7.3357279540076386 1 0 0
331 111 1 -0.834 9.526009813683604 14.974359534947231 6.7346148260253385 0 -1 0
389 130 2 0.417 8.414805588345276 13.744597920858428 7.2471119040954175 0 0 -1